# vtk DataFile Version 3.0
Heat Conduction Solution
ASCII
DATASET UNSTRUCTURED_GRID
POINTS 861 float
0.195000 -0.000000 0.000000
0.200000 -0.000000 0.000000
0.200000 0.005000 0.000000
0.195000 0.005000 0.000000
0.190000 -0.000000 0.000000
0.200000 0.010000 0.000000
0.190000 0.005000 0.000000
0.195000 0.010000 0.000000
0.185000 -0.000000 0.000000
0.200000 0.015000 0.000000
0.185000 0.005000 0.000000
0.190000 0.010000 0.000000
0.195000 0.015000 0.000000
0.180000 -0.000000 0.000000
0.200000 0.020000 0.000000
0.180000 0.005000 0.000000
0.185000 0.010000 0.000000
0.190000 0.015000 0.000000
0.195000 0.020000 0.000000
0.175000 -0.000000 0.000000
0.200000 0.025000 0.000000
0.175000 0.005000 0.000000
0.180000 0.010000 0.000000
0.185000 0.015000 0.000000
0.190000 0.020000 0.000000
0.195000 0.025000 0.000000
0.170000 -0.000000 0.000000
0.200000 0.030000 0.000000
0.170000 0.005000 0.000000
0.175000 0.010000 0.000000
0.180000 0.015000 0.000000
0.185000 0.020000 0.000000
0.190000 0.025000 0.000000
0.195000 0.030000 0.000000
0.165000 -0.000000 0.000000
0.200000 0.035000 0.000000
0.165000 0.005000 0.000000
0.170000 0.010000 0.000000
0.175000 0.015000 0.000000
0.180000 0.020000 0.000000
0.185000 0.025000 0.000000
0.190000 0.030000 0.000000
0.195000 0.035000 0.000000
0.160000 -0.000000 0.000000
0.200000 0.040000 0.000000
0.160000 0.005000 0.000000
0.165000 0.010000 0.000000
0.170000 0.015000 0.000000
0.175000 0.020000 0.000000
0.180000 0.025000 0.000000
0.185000 0.030000 0.000000
0.190000 0.035000 0.000000
0.195000 0.040000 0.000000
0.155000 -0.000000 0.000000
0.200000 0.045000 0.000000
0.155000 0.005000 0.000000
0.160000 0.010000 0.000000
0.165000 0.015000 0.000000
0.170000 0.020000 0.000000
0.175000 0.025000 0.000000
0.180000 0.030000 0.000000
0.185000 0.035000 0.000000
0.190000 0.040000 0.000000
0.195000 0.045000 0.000000
0.150000 -0.000000 0.000000
0.200000 0.050000 0.000000
0.150000 0.005000 0.000000
0.155000 0.010000 0.000000
0.160000 0.015000 0.000000
0.165000 0.020000 0.000000
0.170000 0.025000 0.000000
0.175000 0.030000 0.000000
0.180000 0.035000 0.000000
0.185000 0.040000 0.000000
0.190000 0.045000 0.000000
0.195000 0.050000 0.000000
0.145000 -0.000000 0.000000
0.200000 0.055000 0.000000
0.145000 0.005000 0.000000
0.150000 0.010000 0.000000
0.155000 0.015000 0.000000
0.160000 0.020000 0.000000
0.165000 0.025000 0.000000
0.170000 0.030000 0.000000
0.175000 0.035000 0.000000
0.180000 0.040000 0.000000
0.185000 0.045000 0.000000
0.190000 0.050000 0.000000
0.195000 0.055000 0.000000
0.140000 -0.000000 0.000000
0.200000 0.060000 0.000000
0.140000 0.005000 0.000000
0.145000 0.010000 0.000000
0.150000 0.015000 0.000000
0.155000 0.020000 0.000000
0.160000 0.025000 0.000000
0.165000 0.030000 0.000000
0.170000 0.035000 0.000000
0.175000 0.040000 0.000000
0.180000 0.045000 0.000000
0.185000 0.050000 0.000000
0.190000 0.055000 0.000000
0.195000 0.060000 0.000000
0.135000 -0.000000 0.000000
0.200000 0.065000 0.000000
0.135000 0.005000 0.000000
0.140000 0.010000 0.000000
0.145000 0.015000 0.000000
0.150000 0.020000 0.000000
0.155000 0.025000 0.000000
0.160000 0.030000 0.000000
0.165000 0.035000 0.000000
0.170000 0.040000 0.000000
0.175000 0.045000 0.000000
0.180000 0.050000 0.000000
0.185000 0.055000 0.000000
0.190000 0.060000 0.000000
0.195000 0.065000 0.000000
0.130000 -0.000000 0.000000
0.200000 0.070000 0.000000
0.130000 0.005000 0.000000
0.135000 0.010000 0.000000
0.140000 0.015000 0.000000
0.145000 0.020000 0.000000
0.150000 0.025000 0.000000
0.155000 0.030000 0.000000
0.160000 0.035000 0.000000
0.165000 0.040000 0.000000
0.170000 0.045000 0.000000
0.175000 0.050000 0.000000
0.180000 0.055000 0.000000
0.185000 0.060000 0.000000
0.190000 0.065000 0.000000
0.195000 0.070000 0.000000
0.125000 -0.000000 0.000000
0.200000 0.075000 0.000000
0.125000 0.005000 0.000000
0.130000 0.010000 0.000000
0.135000 0.015000 0.000000
0.140000 0.020000 0.000000
0.145000 0.025000 0.000000
0.150000 0.030000 0.000000
0.155000 0.035000 0.000000
0.160000 0.040000 0.000000
0.165000 0.045000 0.000000
0.170000 0.050000 0.000000
0.175000 0.055000 0.000000
0.180000 0.060000 0.000000
0.185000 0.065000 0.000000
0.190000 0.070000 0.000000
0.195000 0.075000 0.000000
0.120000 -0.000000 0.000000
0.200000 0.080000 0.000000
0.120000 0.005000 0.000000
0.125000 0.010000 0.000000
0.130000 0.015000 0.000000
0.135000 0.020000 0.000000
0.140000 0.025000 0.000000
0.145000 0.030000 0.000000
0.150000 0.035000 0.000000
0.155000 0.040000 0.000000
0.160000 0.045000 0.000000
0.165000 0.050000 0.000000
0.170000 0.055000 0.000000
0.175000 0.060000 0.000000
0.180000 0.065000 0.000000
0.185000 0.070000 0.000000
0.190000 0.075000 0.000000
0.195000 0.080000 0.000000
0.115000 -0.000000 0.000000
0.200000 0.085000 0.000000
0.115000 0.005000 0.000000
0.120000 0.010000 0.000000
0.125000 0.015000 0.000000
0.130000 0.020000 0.000000
0.135000 0.025000 0.000000
0.140000 0.030000 0.000000
0.145000 0.035000 0.000000
0.150000 0.040000 0.000000
0.155000 0.045000 0.000000
0.160000 0.050000 0.000000
0.165000 0.055000 0.000000
0.170000 0.060000 0.000000
0.175000 0.065000 0.000000
0.180000 0.070000 0.000000
0.185000 0.075000 0.000000
0.190000 0.080000 0.000000
0.195000 0.085000 0.000000
0.110000 -0.000000 0.000000
0.200000 0.090000 0.000000
0.110000 0.005000 0.000000
0.115000 0.010000 0.000000
0.120000 0.015000 0.000000
0.125000 0.020000 0.000000
0.130000 0.025000 0.000000
0.135000 0.030000 0.000000
0.140000 0.035000 0.000000
0.145000 0.040000 0.000000
0.150000 0.045000 0.000000
0.155000 0.050000 0.000000
0.160000 0.055000 0.000000
0.165000 0.060000 0.000000
0.170000 0.065000 0.000000
0.175000 0.070000 0.000000
0.180000 0.075000 0.000000
0.185000 0.080000 0.000000
0.190000 0.085000 0.000000
0.195000 0.090000 0.000000
0.105000 -0.000000 0.000000
0.200000 0.095000 0.000000
0.105000 0.005000 0.000000
0.110000 0.010000 0.000000
0.115000 0.015000 0.000000
0.120000 0.020000 0.000000
0.125000 0.025000 0.000000
0.130000 0.030000 0.000000
0.135000 0.035000 0.000000
0.140000 0.040000 0.000000
0.145000 0.045000 0.000000
0.150000 0.050000 0.000000
0.155000 0.055000 0.000000
0.160000 0.060000 0.000000
0.165000 0.065000 0.000000
0.170000 0.070000 0.000000
0.175000 0.075000 0.000000
0.180000 0.080000 0.000000
0.185000 0.085000 0.000000
0.190000 0.090000 0.000000
0.195000 0.095000 0.000000
0.100000 -0.000000 0.000000
0.200000 0.100000 0.000000
0.100000 0.005000 0.000000
0.105000 0.010000 0.000000
0.110000 0.015000 0.000000
0.115000 0.020000 0.000000
0.120000 0.025000 0.000000
0.125000 0.030000 0.000000
0.130000 0.035000 0.000000
0.135000 0.040000 0.000000
0.140000 0.045000 0.000000
0.145000 0.050000 0.000000
0.150000 0.055000 0.000000
0.155000 0.060000 0.000000
0.160000 0.065000 0.000000
0.165000 0.070000 0.000000
0.170000 0.075000 0.000000
0.175000 0.080000 0.000000
0.180000 0.085000 0.000000
0.185000 0.090000 0.000000
0.190000 0.095000 0.000000
0.195000 0.100000 0.000000
0.095000 -0.000000 0.000000
0.095000 0.005000 0.000000
0.100000 0.010000 0.000000
0.105000 0.015000 0.000000
0.110000 0.020000 0.000000
0.115000 0.025000 0.000000
0.120000 0.030000 0.000000
0.125000 0.035000 0.000000
0.130000 0.040000 0.000000
0.135000 0.045000 0.000000
0.140000 0.050000 0.000000
0.145000 0.055000 0.000000
0.150000 0.060000 0.000000
0.155000 0.065000 0.000000
0.160000 0.070000 0.000000
0.165000 0.075000 0.000000
0.170000 0.080000 0.000000
0.175000 0.085000 0.000000
0.180000 0.090000 0.000000
0.185000 0.095000 0.000000
0.190000 0.100000 0.000000
0.090000 -0.000000 0.000000
0.090000 0.005000 0.000000
0.095000 0.010000 0.000000
0.100000 0.015000 0.000000
0.105000 0.020000 0.000000
0.110000 0.025000 0.000000
0.115000 0.030000 0.000000
0.120000 0.035000 0.000000
0.125000 0.040000 0.000000
0.130000 0.045000 0.000000
0.135000 0.050000 0.000000
0.140000 0.055000 0.000000
0.145000 0.060000 0.000000
0.150000 0.065000 0.000000
0.155000 0.070000 0.000000
0.160000 0.075000 0.000000
0.165000 0.080000 0.000000
0.170000 0.085000 0.000000
0.175000 0.090000 0.000000
0.180000 0.095000 0.000000
0.185000 0.100000 0.000000
0.085000 -0.000000 0.000000
0.085000 0.005000 0.000000
0.090000 0.010000 0.000000
0.095000 0.015000 0.000000
0.100000 0.020000 0.000000
0.105000 0.025000 0.000000
0.110000 0.030000 0.000000
0.115000 0.035000 0.000000
0.120000 0.040000 0.000000
0.125000 0.045000 0.000000
0.130000 0.050000 0.000000
0.135000 0.055000 0.000000
0.140000 0.060000 0.000000
0.145000 0.065000 0.000000
0.150000 0.070000 0.000000
0.155000 0.075000 0.000000
0.160000 0.080000 0.000000
0.165000 0.085000 0.000000
0.170000 0.090000 0.000000
0.175000 0.095000 0.000000
0.180000 0.100000 0.000000
0.080000 -0.000000 0.000000
0.080000 0.005000 0.000000
0.085000 0.010000 0.000000
0.090000 0.015000 0.000000
0.095000 0.020000 0.000000
0.100000 0.025000 0.000000
0.105000 0.030000 0.000000
0.110000 0.035000 0.000000
0.115000 0.040000 0.000000
0.120000 0.045000 0.000000
0.125000 0.050000 0.000000
0.130000 0.055000 0.000000
0.135000 0.060000 0.000000
0.140000 0.065000 0.000000
0.145000 0.070000 0.000000
0.150000 0.075000 0.000000
0.155000 0.080000 0.000000
0.160000 0.085000 0.000000
0.165000 0.090000 0.000000
0.170000 0.095000 0.000000
0.175000 0.100000 0.000000
0.075000 -0.000000 0.000000
0.075000 0.005000 0.000000
0.080000 0.010000 0.000000
0.085000 0.015000 0.000000
0.090000 0.020000 0.000000
0.095000 0.025000 0.000000
0.100000 0.030000 0.000000
0.105000 0.035000 0.000000
0.110000 0.040000 0.000000
0.115000 0.045000 0.000000
0.120000 0.050000 0.000000
0.125000 0.055000 0.000000
0.130000 0.060000 0.000000
0.135000 0.065000 0.000000
0.140000 0.070000 0.000000
0.145000 0.075000 0.000000
0.150000 0.080000 0.000000
0.155000 0.085000 0.000000
0.160000 0.090000 0.000000
0.165000 0.095000 0.000000
0.170000 0.100000 0.000000
0.070000 -0.000000 0.000000
0.070000 0.005000 0.000000
0.075000 0.010000 0.000000
0.080000 0.015000 0.000000
0.085000 0.020000 0.000000
0.090000 0.025000 0.000000
0.095000 0.030000 0.000000
0.100000 0.035000 0.000000
0.105000 0.040000 0.000000
[...]
POINT_DATA 861
SCALARS Temperature float 1
LOOKUP_TABLE default
99.097292
99.055701
99.095759
99.137046
99.137537
99.131402
99.177230
99.172627
99.176600
99.162793
99.216289
99.212775
99.204011
99.214529
99.189979
99.254229
99.251823
99.244146
99.231202
99.251344
99.212977
99.291058
99.289765
99.283188
99.271337
99.254209
99.287054
99.231796
99.326784
99.326602
99.321130
99.310377
99.294347
99.273035
99.321664
99.246438
99.361411
99.362339
99.357973
99.348322
99.333389
99.313177
99.287684
99.355179
99.256908
99.394942
99.396978
99.393718
99.385169
99.371336
99.352223
99.327830
99.298158
99.387603
99.263206
99.427382
99.430522
99.428366
99.420919
99.408186
99.390172
99.366879
99.338307
99.304459
99.418938
99.265334
99.458732
99.462975
99.461921
99.455574
99.443941
99.427025
99.404830
99.377357
99.344609
99.306587
99.449187
99.263293
99.488995
99.494338
99.494383
99.489136
99.478601
99.462783
99.441684
99.415309
99.383660
99.346738
99.304545
99.478352
99.257085
99.518175
99.524613
99.525756
99.521607
99.512169
99.497447
99.477444
99.452165
99.421611
99.385786
99.344693
99.298333
99.506436
99.246711
99.546272
99.553805
99.556042
99.552988
99.544645
99.531018
99.512110
99.487925
99.458466
99.423736
99.383738
99.338476
99.287952
99.533441
99.232171
99.573290
99.581913
99.585243
99.583282
99.576032
99.563499
99.545684
99.522592
99.494226
99.460588
99.421684
99.377515
99.328087
99.273404
99.559369
99.213468
99.599230
99.608942
99.613361
99.612490
99.606332
99.594890
99.578167
99.556167
99.528892
99.496345
99.458532
99.415455
99.367119
99.313529
99.254690
99.584223
99.190607
99.624096
99.634892
99.640398
99.640615
99.635546
99.625194
99.609561
99.588651
99.562465
99.531009
99.494284
99.452296
99.405049
99.352548
99.294800
99.231812
99.608005
99.163592
99.647889
99.659767
99.666356
99.667658
99.663676
99.654412
99.639868
99.620046
99.594949
99.564580
99.528944
99.488043
99.441882
99.390467
99.333805
99.271903
99.204776
99.630720
99.132441
99.670614
99.683568
99.691237
99.693621
99.690724
99.682546
99.669088
99.650353
99.626344
99.597062
99.562511
99.522696
99.477620
99.427289
99.371709
99.310888
99.244839
99.173586
99.652370
99.097199
99.692273
99.706300
99.715043
99.718507
99.716691
99.709597
99.697224
99.679575
99.656651
99.628454
99.594989
99.556258
99.512265
99.463016
99.408516
99.348772
99.283796
99.213606
99.138248
99.672960
99.058021
99.712872
99.727964
99.737778
99.742316
99.741579
99.735566
99.724277
99.707712
99.685872
99.658760
99.626378
99.588730
99.545819
99.497650
99.444229
99.385562
99.321657
99.252527
99.178196
99.098734
99.692496
99.732414
99.748565
99.759443
99.765051
99.765389
99.760455
99.750247
99.734764
99.714008
99.687980
99.656681
99.620114
99.578285
99.531195
99.478852
99.421259
99.358425
99.290359
99.217072
99.138585
99.710985
99.750908
99.768107
99.780042
99.786714
99.788123
99.784264
99.775135
99.760735
99.741061
99.716115
99.685898
99.650413
99.609663
99.563652
99.512385
99.455868
99.394105
99.327104
99.254873
99.177419
99.728436
99.768362
99.786597
99.799578
99.807307
99.809781
99.806995
99.798943
99.785623
99.767030
99.743166
99.714030
99.679626
99.639955
99.595023
99.544832
99.489388
99.428697
99.362763
99.291594
99.215193
99.744862
99.784789
99.804042
99.818056
99.826832
99.830365
99.828648
99.821671
99.809429
99.791917
99.769134
99.741080
99.707755
99.669164
99.625308
99.576193
99.521823
99.462203
99.397338
99.327233
99.251892
99.760279
99.800202
99.820453
99.835483
99.845293
99.849877
99.849222
99.843318
99.832153
99.815722
99.794020
99.767047
99.734802
99.697289
99.654510
99.606470
99.553173
99.494624
99.430828
99.361789
99.287511
99.774709
99.814625
99.835843
99.851865
99.862693
99.868317
99.868719
99.863883
99.853795
99.838444
99.817824
99.791931
99.760767
99.724332
99.682630
99.635664
99.583440
99.525962
99.463235
99.395262
99.322049
99.788183
99.828086
99.850230
99.867212
99.879037
99.885686
99.887137
99.883366
99.874353
99.860082
99.840544
99.815734
99.785650
99.750294
99.709669
99.663778
99.612626
99.556218
99.494559
99.427653
99.355505
99.800743
99.840623
99.863637
99.881538
99.894329
99.901985
99.904475
99.901764
99.893824
99.880634
99.862180
99.838454
99.809452
99.775176
99.735627
99.690811
99.640731
99.585393
99.524802
99.458963
99.387879
99.812444
99.852291
99.876099
99.894860
99.908577
99.917215
99.920729
99.919072
99.912205
99.900098
99.882730
99.860091
99.832173
99.798978
99.760507
99.716765
99.667757
99.613489
99.553966
99.489192
99.419172
99.823366
99.863164
99.887660
99.907202
99.921790
99.931376
99.935896
99.935286
99.929490
99.918468
99.902191
99.880642
99.853812
99.821701
99.784309
99.741642
99.693706
99.640507
99.582051
99.518342
99.449386
99.833619
99.873346
99.898380
99.918594
99.933980
99.944469
99.949970
99.950396
99.945671
99.935738
99.920557
99.900104
99.874367
99.843343
99.807033
99.765443
99.718580
99.666449
99.609059
99.546415
99.478522
99.843359
99.882979
99.908345
99.929078
99.945161
99.956492
99.962943
99.964392
99.960736
99.951898
99.937821
99.918473
99.893837
99.863905
99.828680
99.788169
99.742378
99.691317
99.634992
99.573412
99.506581
99.852806
99.892270
99.917668
99.938711
99.955353
99.967443
99.974801
99.977257
99.974670
99.966934
99.953974
99.935742
99.912216
99.883385
99.849251
99.809821
99.765104
99.715112
99.659852
99.599334
99.533564
99.862284
99.901511
99.926509
99.947566
99.964580
99.977319
99.985527
99.988968
99.987450
99.980828
99.969000
99.951902
99.929499
99.901780
99.868743
99.830399
99.786759
99.737836
99.683641
99.624185
99.559474
99.872277
99.911130
99.935085
99.955740
99.972870
99.986112
99.995095
99.999493
99.999045
99.993554
99.982880
99.966937
99.945679
99.919086
99.887158
99.849906
99.807346
99.759493
99.706362
99.647965
99.584313
99.883543
99.921765
99.943693
99.963354
99.980255
99.993806
100.003468
100.008790
100.009415
100.005075
99.995587
99.980831
99.960743
99.935297
99.904492
99.868342
99.826865
99.780084
99.728017
99.670679
99.608082
99.897359
99.934384
99.952727
99.970555
99.986762
100.000373
100.010595
100.016798
100.018500
100.015345
100.007083
99.993556
99.974676
99.950406
99.920744
99.885707
99.845322
99.799614
99.748610
99.692329
99.630785
99.916129
99.950460
99.962681
99.977495
99.992403
100.005762
100.016396
100.023434
100.026226
100.024297
100.017318
100.005077
99.987455
99.964400
99.935909
99.902003
99.862717
99.818087
99.768146
99.712919
99.652426
99.945264
99.971994
99.974057
99.984280
99.997143
100.009879
100.020759
100.028583
100.032485
100.031844
100.026225
100.015347
99.999050
99.977264
99.949981
99.917231
99.879057
99.835509
99.786630
99.732455
99.673008
100.000000
100.000000
99.986980
99.990834
100.000837
100.012561
100.023517
100.032087
100.037140
100.037868
100.033711
100.024299
100.009418
99.988974
99.962952
99.931389
99.894346
99.851887
99.804071
99.750943
99.692537
100.000000
99.996593
100.003130
100.013522
100.024424
100.033731
100.040001
100.042215
100.039655
100.031845
100.018503
99.999498
99.974808
99.944480
99.908592
99.867232
99.820477
99.768392
99.711020
100.000000
100.003283
100.012293
100.023124
100.033221
100.040824
100.044680
100.043897
100.037870
100.026228
100.008795
99.985533
99.956501
99.921803
99.881555
99.835864
99.784814
99.728466
100.000000
100.008136
100.019110
100.030165
100.039289
100.045002
100.046229
100.042216
100.032488
100.016802
99.995100
99.967451
99.933990
99.894874
99.850247
99.800224
99.744887
100.000000
100.011693
100.024055
100.034988
100.042847
100.046382
100.044681
100.037141
100.023437
100.003473
99.977326
99.945170
99.907214
99.863652
99.814644
99.760300
100.000000
100.014251
100.027419
100.037804
100.044020
100.045003
100.040003
100.028585
100.010599
99.986118
99.955361
99.918604
99.876112
99.828101
99.774728
100.000000
100.015983
100.029376
100.038730
100.042848
100.040825
100.032089
100.016399
99.993811
99.964587
99.929087
99.887670
99.840636
99.788199
100.000000
100.016987
100.030018
100.037804
100.039289
100.033732
100.020762
100.000377
99.972876
99.938718
99.898389
99.852303
99.800756
100.000000
100.017317
100.029376
100.034988
100.033222
100.023519
100.005765
99.980259
99.947572
99.908352
99.863174
99.812455
100.000000
100.016988
100.027419
100.030166
100.024426
100.009882
99.986766
99.955744
99.917675
99.873353
99.823376
100.000000
100.015983
100.024055
100.023125
100.012563
99.992406
99.963358
99.926515
99.882986
99.833627
100.000000
100.014252
100.019111
100.013524
99.997145
99.970558
99.935089
99.892275
99.843365
100.000000
100.011693
100.012294
100.000839
99.977497
99.943696
99.901515
99.852811
100.000000
100.008136
100.003132
99.984282
99.952729
99.911133
99.862288
100.000000
100.003284
99.990835
99.962683
99.921767
99.872280
100.000000
99.996593
99.974058
99.934386
99.883546
100.000000
99.986980
99.950461
99.897361
100.000000
99.971995
99.916130
100.000000
99.945265
100.000000
