# vtk DataFile Version 3.0
Displacement Field
ASCII
DATASET UNSTRUCTURED_GRID
POINTS 861 float
0.195000 -0.000000 0.000000
0.200000 -0.000000 0.000000
0.200000 0.005000 0.000000
0.195000 0.005000 0.000000
0.190000 -0.000000 0.000000
0.200000 0.010000 0.000000
0.190000 0.005000 0.000000
0.195000 0.010000 0.000000
0.185000 -0.000000 0.000000
0.200000 0.015000 0.000000
0.185000 0.005000 0.000000
0.190000 0.010000 0.000000
0.195000 0.015000 0.000000
0.180000 -0.000000 0.000000
0.200000 0.020000 0.000000
0.180000 0.005000 0.000000
0.185000 0.010000 0.000000
0.190000 0.015000 0.000000
0.195000 0.020000 0.000000
0.175000 -0.000000 0.000000
0.200000 0.025000 0.000000
0.175000 0.005000 0.000000
0.180000 0.010000 0.000000
0.185000 0.015000 0.000000
0.190000 0.020000 0.000000
0.195000 0.025000 0.000000
0.170000 -0.000000 0.000000
0.200000 0.030000 0.000000
0.170000 0.005000 0.000000
0.175000 0.010000 0.000000
0.180000 0.015000 0.000000
0.185000 0.020000 0.000000
0.190000 0.025000 0.000000
0.195000 0.030000 0.000000
0.165000 -0.000000 0.000000
0.200000 0.035000 0.000000
0.165000 0.005000 0.000000
0.170000 0.010000 0.000000
0.175000 0.015000 0.000000
0.180000 0.020000 0.000000
0.185000 0.025000 0.000000
0.190000 0.030000 0.000000
0.195000 0.035000 0.000000
0.160000 -0.000000 0.000000
0.200000 0.040000 0.000000
0.160000 0.005000 0.000000
0.165000 0.010000 0.000000
0.170000 0.015000 0.000000
0.175000 0.020000 0.000000
0.180000 0.025000 0.000000
0.185000 0.030000 0.000000
0.190000 0.035000 0.000000
0.195000 0.040000 0.000000
0.155000 -0.000000 0.000000
0.200000 0.045000 0.000000
0.155000 0.005000 0.000000
0.160000 0.010000 0.000000
0.165000 0.015000 0.000000
0.170000 0.020000 0.000000
0.175000 0.025000 0.000000
0.180000 0.030000 0.000000
0.185000 0.035000 0.000000
0.190000 0.040000 0.000000
0.195000 0.045000 0.000000
0.150000 -0.000000 0.000000
0.200000 0.050000 0.000000
0.150000 0.005000 0.000000
0.155000 0.010000 0.000000
0.160000 0.015000 0.000000
0.165000 0.020000 0.000000
0.170000 0.025000 0.000000
0.175000 0.030000 0.000000
0.180000 0.035000 0.000000
0.185000 0.040000 0.000000
0.190000 0.045000 0.000000
0.195000 0.050000 0.000000
0.145000 -0.000000 0.000000
0.200000 0.055000 0.000000
0.145000 0.005000 0.000000
0.150000 0.010000 0.000000
0.155000 0.015000 0.000000
0.160000 0.020000 0.000000
0.165000 0.025000 0.000000
0.170000 0.030000 0.000000
0.175000 0.035000 0.000000
0.180000 0.040000 0.000000
0.185000 0.045000 0.000000
0.190000 0.050000 0.000000
0.195000 0.055000 0.000000
0.140000 -0.000000 0.000000
0.200000 0.060000 0.000000
0.140000 0.005000 0.000000
0.145000 0.010000 0.000000
0.150000 0.015000 0.000000
0.155000 0.020000 0.000000
0.160000 0.025000 0.000000
0.165000 0.030000 0.000000
0.170000 0.035000 0.000000
0.175000 0.040000 0.000000
0.180000 0.045000 0.000000
0.185000 0.050000 0.000000
0.190000 0.055000 0.000000
0.195000 0.060000 0.000000
0.135000 -0.000000 0.000000
0.200000 0.065000 0.000000
0.135000 0.005000 0.000000
0.140000 0.010000 0.000000
0.145000 0.015000 0.000000
0.150000 0.020000 0.000000
0.155000 0.025000 0.000000
0.160000 0.030000 0.000000
0.165000 0.035000 0.000000
0.170000 0.040000 0.000000
0.175000 0.045000 0.000000
0.180000 0.050000 0.000000
0.185000 0.055000 0.000000
0.190000 0.060000 0.000000
0.195000 0.065000 0.000000
0.130000 -0.000000 0.000000
0.200000 0.070000 0.000000
0.130000 0.005000 0.000000
0.135000 0.010000 0.000000
0.140000 0.015000 0.000000
0.145000 0.020000 0.000000
0.150000 0.025000 0.000000
0.155000 0.030000 0.000000
0.160000 0.035000 0.000000
0.165000 0.040000 0.000000
0.170000 0.045000 0.000000
0.175000 0.050000 0.000000
0.180000 0.055000 0.000000
0.185000 0.060000 0.000000
0.190000 0.065000 0.000000
0.195000 0.070000 0.000000
0.125000 -0.000000 0.000000
0.200000 0.075000 0.000000
0.125000 0.005000 0.000000
0.130000 0.010000 0.000000
0.135000 0.015000 0.000000
0.140000 0.020000 0.000000
0.145000 0.025000 0.000000
0.150000 0.030000 0.000000
0.155000 0.035000 0.000000
0.160000 0.040000 0.000000
0.165000 0.045000 0.000000
0.170000 0.050000 0.000000
0.175000 0.055000 0.000000
0.180000 0.060000 0.000000
0.185000 0.065000 0.000000
0.190000 0.070000 0.000000
0.195000 0.075000 0.000000
0.120000 -0.000000 0.000000
0.200000 0.080000 0.000000
0.120000 0.005000 0.000000
0.125000 0.010000 0.000000
0.130000 0.015000 0.000000
0.135000 0.020000 0.000000
0.140000 0.025000 0.000000
0.145000 0.030000 0.000000
0.150000 0.035000 0.000000
0.155000 0.040000 0.000000
0.160000 0.045000 0.000000
0.165000 0.050000 0.000000
0.170000 0.055000 0.000000
0.175000 0.060000 0.000000
0.180000 0.065000 0.000000
0.185000 0.070000 0.000000
0.190000 0.075000 0.000000
0.195000 0.080000 0.000000
0.115000 -0.000000 0.000000
0.200000 0.085000 0.000000
0.115000 0.005000 0.000000
0.120000 0.010000 0.000000
0.125000 0.015000 0.000000
0.130000 0.020000 0.000000
0.135000 0.025000 0.000000
0.140000 0.030000 0.000000
0.145000 0.035000 0.000000
0.150000 0.040000 0.000000
0.155000 0.045000 0.000000
0.160000 0.050000 0.000000
0.165000 0.055000 0.000000
0.170000 0.060000 0.000000
0.175000 0.065000 0.000000
0.180000 0.070000 0.000000
0.185000 0.075000 0.000000
0.190000 0.080000 0.000000
0.195000 0.085000 0.000000
0.110000 -0.000000 0.000000
0.200000 0.090000 0.000000
0.110000 0.005000 0.000000
0.115000 0.010000 0.000000
0.120000 0.015000 0.000000
0.125000 0.020000 0.000000
0.130000 0.025000 0.000000
0.135000 0.030000 0.000000
0.140000 0.035000 0.000000
0.145000 0.040000 0.000000
0.150000 0.045000 0.000000
0.155000 0.050000 0.000000
0.160000 0.055000 0.000000
0.165000 0.060000 0.000000
0.170000 0.065000 0.000000
0.175000 0.070000 0.000000
0.180000 0.075000 0.000000
0.185000 0.080000 0.000000
0.190000 0.085000 0.000000
0.195000 0.090000 0.000000
0.105000 -0.000000 0.000000
0.200000 0.095000 0.000000
0.105000 0.005000 0.000000
0.110000 0.010000 0.000000
0.115000 0.015000 0.000000
0.120000 0.020000 0.000000
0.125000 0.025000 0.000000
0.130000 0.030000 0.000000
0.135000 0.035000 0.000000
0.140000 0.040000 0.000000
0.145000 0.045000 0.000000
0.150000 0.050000 0.000000
0.155000 0.055000 0.000000
0.160000 0.060000 0.000000
0.165000 0.065000 0.000000
0.170000 0.070000 0.000000
0.175000 0.075000 0.000000
0.180000 0.080000 0.000000
0.185000 0.085000 0.000000
0.190000 0.090000 0.000000
0.195000 0.095000 0.000000
0.100000 -0.000000 0.000000
0.200000 0.100000 0.000000
0.100000 0.005000 0.000000
0.105000 0.010000 0.000000
0.110000 0.015000 0.000000
0.115000 0.020000 0.000000
0.120000 0.025000 0.000000
0.125000 0.030000 0.000000
0.130000 0.035000 0.000000
0.135000 0.040000 0.000000
0.140000 0.045000 0.000000
0.145000 0.050000 0.000000
0.150000 0.055000 0.000000
0.155000 0.060000 0.000000
0.160000 0.065000 0.000000
0.165000 0.070000 0.000000
0.170000 0.075000 0.000000
0.175000 0.080000 0.000000
0.180000 0.085000 0.000000
0.185000 0.090000 0.000000
0.190000 0.095000 0.000000
0.195000 0.100000 0.000000
0.095000 -0.000000 0.000000
0.095000 0.005000 0.000000
0.100000 0.010000 0.000000
0.105000 0.015000 0.000000
0.110000 0.020000 0.000000
0.115000 0.025000 0.000000
0.120000 0.030000 0.000000
0.125000 0.035000 0.000000
0.130000 0.040000 0.000000
0.135000 0.045000 0.000000
0.140000 0.050000 0.000000
0.145000 0.055000 0.000000
0.150000 0.060000 0.000000
0.155000 0.065000 0.000000
0.160000 0.070000 0.000000
0.165000 0.075000 0.000000
0.170000 0.080000 0.000000
0.175000 0.085000 0.000000
0.180000 0.090000 0.000000
0.185000 0.095000 0.000000
0.190000 0.100000 0.000000
0.090000 -0.000000 0.000000
0.090000 0.005000 0.000000
0.095000 0.010000 0.000000
0.100000 0.015000 0.000000
0.105000 0.020000 0.000000
0.110000 0.025000 0.000000
0.115000 0.030000 0.000000
0.120000 0.035000 0.000000
0.125000 0.040000 0.000000
0.130000 0.045000 0.000000
0.135000 0.050000 0.000000
0.140000 0.055000 0.000000
0.145000 0.060000 0.000000
0.150000 0.065000 0.000000
0.155000 0.070000 0.000000
0.160000 0.075000 0.000000
0.165000 0.080000 0.000000
0.170000 0.085000 0.000000
0.175000 0.090000 0.000000
0.180000 0.095000 0.000000
0.185000 0.100000 0.000000
0.085000 -0.000000 0.000000
0.085000 0.005000 0.000000
0.090000 0.010000 0.000000
0.095000 0.015000 0.000000
0.100000 0.020000 0.000000
0.105000 0.025000 0.000000
0.110000 0.030000 0.000000
0.115000 0.035000 0.000000
0.120000 0.040000 0.000000
0.125000 0.045000 0.000000
0.130000 0.050000 0.000000
0.135000 0.055000 0.000000
0.140000 0.060000 0.000000
0.145000 0.065000 0.000000
0.150000 0.070000 0.000000
0.155000 0.075000 0.000000
0.160000 0.080000 0.000000
0.165000 0.085000 0.000000
0.170000 0.090000 0.000000
0.175000 0.095000 0.000000
0.180000 0.100000 0.000000
0.080000 -0.000000 0.000000
0.080000 0.005000 0.000000
0.085000 0.010000 0.000000
0.090000 0.015000 0.000000
0.095000 0.020000 0.000000
0.100000 0.025000 0.000000
0.105000 0.030000 0.000000
0.110000 0.035000 0.000000
0.115000 0.040000 0.000000
0.120000 0.045000 0.000000
0.125000 0.050000 0.000000
0.130000 0.055000 0.000000
0.135000 0.060000 0.000000
0.140000 0.065000 0.000000
0.145000 0.070000 0.000000
0.150000 0.075000 0.000000
0.155000 0.080000 0.000000
0.160000 0.085000 0.000000
0.165000 0.090000 0.000000
0.170000 0.095000 0.000000
0.175000 0.100000 0.000000
0.075000 -0.000000 0.000000
0.075000 0.005000 0.000000
0.080000 0.010000 0.000000
0.085000 0.015000 0.000000
0.090000 0.020000 0.000000
0.095000 0.025000 0.000000
0.100000 0.030000 0.000000
0.105000 0.035000 0.000000
0.110000 0.040000 0.000000
0.115000 0.045000 0.000000
0.120000 0.050000 0.000000
0.125000 0.055000 0.000000
0.130000 0.060000 0.000000
0.135000 0.065000 0.000000
0.140000 0.070000 0.000000
0.145000 0.075000 0.000000
0.150000 0.080000 0.000000
0.155000 0.085000 0.000000
0.160000 0.090000 0.000000
0.165000 0.095000 0.000000
0.170000 0.100000 0.000000
0.070000 -0.000000 0.000000
0.070000 0.005000 0.000000
0.075000 0.010000 0.000000
0.080000 0.015000 0.000000
0.085000 0.020000 0.000000
0.090000 0.025000 0.000000
0.095000 0.030000 0.000000
0.100000 0.035000 0.000000
0.105000 0.040000 0.000000
[...]
POINT_DATA 861
VECTORS Displacement float
1.183197e-05 1.167891e-07 0.000000
1.183759e-05 5.287008e-08 0.000000
1.190386e-05 5.113082e-08 0.000000
1.189631e-05 1.100591e-07 0.000000
1.181031e-05 1.820837e-07 0.000000
1.196170e-05 4.980519e-08 0.000000
1.187372e-05 1.689896e-07 0.000000
1.195386e-05 1.028905e-07 0.000000
1.177266e-05 2.477611e-07 0.000000
1.201242e-05 4.894806e-08 0.000000
1.183573e-05 2.280922e-07 0.000000
1.193085e-05 1.555737e-07 0.000000
1.200451e-05 9.566608e-08 0.000000
1.171925e-05 3.136751e-07 0.000000
1.205621e-05 4.835242e-08 0.000000
1.178223e-05 2.873788e-07 0.000000
1.189256e-05 2.082295e-07 0.000000
1.198132e-05 1.419906e-07 0.000000
1.204830e-05 8.848555e-08 0.000000
1.165022e-05 3.797698e-07 0.000000
1.209316e-05 4.788952e-08 0.000000
1.171321e-05 3.468356e-07 0.000000
1.183888e-05 2.609749e-07 0.000000
1.194283e-05 1.882067e-07 0.000000
1.202502e-05 1.283380e-07 0.000000
1.208525e-05 8.135620e-08 0.000000
1.156564e-05 4.460154e-07 0.000000
1.212332e-05 4.748178e-08 0.000000
1.162869e-05 4.064465e-07 0.000000
1.176977e-05 3.138465e-07 0.000000
1.188899e-05 2.344452e-07 0.000000
1.198641e-05 1.680776e-07 0.000000
1.206194e-05 1.146599e-07 0.000000
1.211542e-05 7.425840e-08 0.000000
1.146555e-05 5.123962e-07 0.000000
1.214673e-05 4.707890e-08 0.000000
1.152869e-05 4.661999e-07 0.000000
1.168521e-05 3.668531e-07 0.000000
1.181976e-05 2.807651e-07 0.000000
1.193245e-05 2.078080e-07 0.000000
1.202325e-05 1.478815e-07 0.000000
1.209207e-05 1.009701e-07 0.000000
1.213881e-05 6.716727e-08 0.000000
1.135001e-05 5.789061e-07 0.000000
1.216342e-05 4.664493e-08 0.000000
1.141323e-05 5.260914e-07 0.000000
1.158521e-05 4.199957e-07 0.000000
1.173513e-05 3.271919e-07 0.000000
1.186311e-05 2.475867e-07 0.000000
1.196920e-05 1.810872e-07 0.000000
1.205334e-05 1.276413e-07 0.000000
1.211545e-05 8.726819e-08 0.000000
1.215548e-05 6.005936e-08 0.000000
1.121902e-05 6.455465e-07 0.000000
1.217340e-05 4.615126e-08 0.000000
1.128234e-05 5.861235e-07 0.000000
1.146976e-05 4.732765e-07 0.000000
1.163507e-05 3.737381e-07 0.000000
1.177839e-05 2.874447e-07 0.000000
1.189978e-05 2.143206e-07 0.000000
1.199923e-05 1.543032e-07 0.000000
1.207669e-05 1.073692e-07 0.000000
1.213210e-05 7.354780e-08 0.000000
1.216543e-05 5.291401e-08 0.000000
1.107263e-05 7.123248e-07 0.000000
1.217671e-05 4.557222e-08 0.000000
1.113605e-05 6.463055e-07 0.000000
1.133890e-05 5.267017e-07 0.000000
1.151958e-05 4.204127e-07 0.000000
1.167825e-05 3.274000e-07 0.000000
1.181496e-05 2.476089e-07 0.000000
1.192973e-05 1.809806e-07 0.000000
1.202253e-05 1.274722e-07 0.000000
1.209331e-05 8.707154e-08 0.000000
1.214204e-05 5.980147e-08 0.000000
1.216871e-05 4.571298e-08 0.000000
1.091086e-05 7.792535e-07 0.000000
1.217338e-05 4.488178e-08 0.000000
1.097439e-05 7.066526e-07 0.000000
1.119262e-05 5.802835e-07 0.000000
1.138867e-05 4.672267e-07 0.000000
1.156268e-05 3.674662e-07 0.000000
1.171473e-05 2.809699e-07 0.000000
1.184483e-05 2.076913e-07 0.000000
1.195298e-05 1.475824e-07 0.000000
1.203912e-05 1.006077e-07 0.000000
1.210323e-05 6.675251e-08 0.000000
1.214529e-05 4.602257e-08 0.000000
1.216533e-05 3.843956e-08 0.000000
1.073376e-05 8.463486e-07 0.000000
1.216344e-05 4.405026e-08 0.000000
1.079740e-05 7.671849e-07 0.000000
1.103097e-05 6.340401e-07 0.000000
1.124235e-05 5.141952e-07 0.000000
1.143169e-05 4.076575e-07 0.000000
1.159907e-05 3.144184e-07 0.000000
1.174451e-05 2.344486e-07 0.000000
1.186801e-05 1.677051e-07 0.000000
1.196952e-05 1.141423e-07 0.000000
1.204902e-05 7.372194e-08 0.000000
1.210647e-05 4.641655e-08 0.000000
1.214189e-05 3.220642e-08 0.000000
1.215534e-05 3.107772e-08 0.000000
1.054137e-05 9.136281e-07 0.000000
1.214695e-05 4.304071e-08 0.000000
1.060512e-05 8.279258e-07 0.000000
1.085396e-05 6.879947e-07 0.000000
1.108062e-05 5.613388e-07 0.000000
1.128526e-05 4.479911e-07 0.000000
1.146796e-05 3.479691e-07 0.000000
1.162875e-05 2.612647e-07 0.000000
1.176761e-05 1.878461e-07 0.000000
1.188451e-05 1.276674e-07 0.000000
1.197940e-05 8.067771e-08 0.000000
1.205225e-05 4.682792e-08 0.000000
1.210306e-05 2.606990e-08 0.000000
1.213187e-05 1.835122e-08 0.000000
1.213878e-05 2.361181e-08 0.000000
1.033377e-05 9.811099e-07 0.000000
1.212397e-05 4.180402e-08 0.000000
1.039761e-05 8.888998e-07 0.000000
1.066164e-05 7.421749e-07 0.000000
1.090350e-05 6.086832e-07 0.000000
1.112339e-05 4.884891e-07 0.000000
1.132139e-05 3.816400e-07 0.000000
1.149752e-05 2.881529e-07 0.000000
1.165176e-05 2.080128e-07 0.000000
1.178405e-05 1.411797e-07 0.000000
1.189435e-05 8.759847e-08 0.000000
1.198262e-05 4.720721e-08 0.000000
1.204884e-05 1.993985e-08 0.000000
1.209304e-05 5.721855e-09 0.000000
1.211529e-05 4.459426e-09 0.000000
1.211571e-05 1.602720e-08 0.000000
1.011104e-05 1.048808e-06 0.000000
1.209458e-05 4.027242e-08 0.000000
1.017496e-05 9.501296e-07 0.000000
1.045404e-05 7.966102e-07 0.000000
1.071100e-05 6.562585e-07 0.000000
1.094607e-05 5.291780e-07 0.000000
1.115934e-05 4.154529e-07 0.000000
1.135080e-05 3.151298e-07 0.000000
1.152041e-05 2.282152e-07 0.000000
1.166811e-05 1.546803e-07 0.000000
1.179384e-05 9.447169e-08 0.000000
1.189755e-05 4.752069e-08 0.000000
1.197922e-05 1.375023e-08 0.000000
1.203884e-05 -6.926102e-09 0.000000
1.207646e-05 -1.461395e-08 0.000000
1.209219e-05 -9.459764e-09 0.000000
1.208622e-05 8.313152e-09 0.000000
9.873300e-06 1.116728e-06 0.000000
1.205896e-05 3.835070e-08 0.000000
9.937249e-06 1.011632e-06 0.000000
1.023123e-05 8.513293e-07 0.000000
1.050317e-05 7.040968e-07 0.000000
1.075332e-05 5.700887e-07 0.000000
1.098179e-05 4.494336e-07 0.000000
1.118855e-05 3.422152e-07 0.000000
1.137354e-05 2.484664e-07 0.000000
1.153666e-05 1.681746e-07 0.000000
1.167784e-05 1.012920e-07 0.000000
1.179702e-05 4.774749e-08 0.000000
1.189415e-05 7.456851e-09 0.000000
1.196922e-05 -1.967364e-08 0.000000
1.202228e-05 -3.375186e-08 0.000000
1.205339e-05 -3.491817e-08 0.000000
1.206269e-05 -2.338620e-08 0.000000
1.205045e-05 4.700338e-10 0.000000
9.620680e-06 1.184864e-06 0.000000
1.201734e-05 3.590732e-08 0.000000
9.684599e-06 1.073411e-06 0.000000
9.993268e-06 9.063557e-07 0.000000
1.028001e-05 7.522303e-07 0.000000
1.054514e-05 6.112540e-07 0.000000
1.078873e-05 4.836119e-07 0.000000
1.101075e-05 3.694328e-07 0.000000
1.121111e-05 2.687832e-07 0.000000
1.138966e-05 1.816714e-07 0.000000
1.154632e-05 1.080594e-07 0.000000
1.168098e-05 4.787656e-08 0.000000
1.179360e-05 1.032911e-09 0.000000
1.188416e-05 -3.257170e-08 0.000000
1.195268e-05 -5.304625e-08 0.000000
1.199923e-05 -6.051858e-08 0.000000
1.202390e-05 -5.516523e-08 0.000000
1.202692e-05 -3.728318e-08 0.000000
1.200866e-05 -7.474855e-09 0.000000
9.353360e-06 1.253186e-06 0.000000
1.197024e-05 3.277770e-08 0.000000
9.417151e-06 1.135453e-06 0.000000
9.740242e-06 9.617030e-07 0.000000
1.004158e-05 8.006867e-07 0.000000
1.032152e-05 6.527068e-07 0.000000
1.058014e-05 5.180192e-07 0.000000
1.081737e-05 3.968092e-07 0.000000
1.103307e-05 2.891853e-07 0.000000
1.122707e-05 1.951831e-07 0.000000
1.139922e-05 1.147785e-07 0.000000
1.154940e-05 4.790363e-08 0.000000
1.167754e-05 -5.536147e-09 0.000000
1.178361e-05 -4.564889e-08 0.000000
1.186762e-05 -7.254811e-08 0.000000
1.192964e-05 -8.635424e-08 0.000000
1.196975e-05 -8.721053e-08 0.000000
1.198815e-05 -7.532694e-08 0.000000
1.198512e-05 -5.109501e-08 0.000000
1.196132e-05 -1.543698e-08 0.000000
9.071557e-06 1.321635e-06 0.000000
1.191868e-05 2.884581e-08 0.000000
9.135078e-06 1.197715e-06 0.000000
9.472250e-06 1.017367e-06 0.000000
9.787926e-06 8.494841e-07 0.000000
1.008249e-05 6.944761e-07 0.000000
1.035600e-05 5.526869e-07 0.000000
1.060837e-05 4.243728e-07 0.000000
1.083938e-05 3.096949e-07 0.000000
1.104882e-05 2.087244e-07 0.000000
1.123650e-05 1.214563e-07 0.000000
1.140224e-05 4.782871e-08 0.000000
1.154593e-05 -1.225735e-08 0.000000
1.166754e-05 -5.891964e-08 0.000000
1.176707e-05 -9.228120e-08 0.000000
1.184457e-05 -1.124644e-07 0.000000
1.190014e-05 -1.195953e-07 0.000000
1.193396e-05 -1.138257e-07 0.000000
1.194629e-05 -9.539140e-08 0.000000
1.193766e-05 -6.477436e-08 0.000000
1.190940e-05 -2.325167e-08 0.000000
8.775537e-06 1.390106e-06 0.000000
1.186608e-05 2.465945e-08 0.000000
8.838582e-06 1.260112e-06 0.000000
9.189411e-06 1.073314e-06 0.000000
9.519090e-06 8.986238e-07 0.000000
9.828030e-06 7.365816e-07 0.000000
1.011628e-05 5.876426e-07 0.000000
1.038369e-05 4.521515e-07 0.000000
1.062998e-05 3.303357e-07 0.000000
1.085488e-05 2.223120e-07 0.000000
1.105810e-05 1.281022e-07 0.000000
1.123943e-05 4.765412e-08 0.000000
1.139873e-05 -1.913398e-08 0.000000
1.153592e-05 -7.239116e-08 0.000000
1.165099e-05 -1.122548e-07 0.000000
1.174399e-05 -1.388584e-07 0.000000
1.181502e-05 -1.523276e-07 0.000000
1.186426e-05 -1.527892e-07 0.000000
1.189194e-05 -1.404000e-07 0.000000
1.189852e-05 -1.154256e-07 0.000000
1.188494e-05 -7.847879e-08 0.000000
1.185401e-05 -3.145337e-08 0.000000
8.465615e-06 1.458438e-06 0.000000
8.527903e-06 1.322501e-06 0.000000
8.891863e-06 1.129474e-06 0.000000
9.235140e-06 9.480802e-07 0.000000
9.558167e-06 7.790271e-07 0.000000
9.860961e-06 6.229057e-07 0.000000
1.014329e-05 4.801698e-07 0.000000
1.040482e-05 3.511305e-07 0.000000
1.064516e-05 2.359635e-07 0.000000
1.086396e-05 1.347264e-07 0.000000
1.106094e-05 4.738321e-08 0.000000
1.123589e-05 -2.616811e-08 0.000000
1.138871e-05 -8.606842e-08 0.000000
1.151936e-05 -1.324732e-07 0.000000
1.162788e-05 -1.655345e-07 0.000000
1.171437e-05 -1.853906e-07 0.000000
1.177901e-05 -1.921672e-07 0.000000
1.182201e-05 -1.859921e-07 0.000000
1.184374e-05 -1.670424e-07 0.000000
1.184484e-05 -1.356795e-07 0.000000
1.182678e-05 -9.295020e-08 0.000000
8.142170e-06 1.526385e-06 0.000000
8.203320e-06 1.384660e-06 0.000000
8.579763e-06 1.185715e-06 0.000000
8.936148e-06 9.977888e-07 0.000000
9.272908e-06 8.217910e-07 0.000000
9.590002e-06 6.584802e-07 0.000000
9.887119e-06 5.084447e-07 0.000000
1.016381e-05 3.720995e-07 0.000000
1.041959e-05 2.496957e-07 0.000000
1.065400e-05 1.413395e-07 0.000000
1.086669e-05 4.701950e-08 0.000000
1.105736e-05 -3.336215e-08 0.000000
1.122587e-05 -9.995710e-08 0.000000
1.137215e-05 -1.529413e-07 0.000000
1.149622e-05 -1.924911e-07 0.000000
1.159819e-05 -2.187670e-07 0.000000
1.167822e-05 -2.319081e-07 0.000000
1.173652e-05 -2.320402e-07 0.000000
1.177338e-05 -2.193048e-07 0.000000
1.178924e-05 -1.939443e-07 0.000000
1.178486e-05 -1.565686e-07 0.000000
7.805644e-06 1.593597e-06 0.000000
7.865147e-06 1.446264e-06 0.000000
8.253290e-06 1.241832e-06 0.000000
8.622195e-06 1.047629e-06 0.000000
8.972262e-06 8.648138e-07 0.000000
9.303370e-06 6.943468e-07 0.000000
9.615096e-06 5.369796e-07 0.000000
9.906868e-06 3.932562e-07 0.000000
1.017807e-05 2.635232e-07 0.000000
1.042814e-05 1.479517e-07 0.000000
1.065660e-05 4.656620e-08 0.000000
1.086308e-05 -4.071947e-08 0.000000
1.104736e-05 -1.140650e-07 0.000000
1.120934e-05 -1.736676e-07 0.000000
1.134901e-05 -2.197320e-07 0.000000
1.146648e-05 -2.524479e-07 0.000000
1.156191e-05 -2.719783e-07 0.000000
1.163550e-05 -2.784608e-07 0.000000
1.168750e-05 -2.720269e-07 0.000000
1.171824e-05 -2.528545e-07 0.000000
1.172810e-05 -2.213098e-07 0.000000
7.456547e-06 1.659589e-06 0.000000
7.513736e-06 1.506849e-06 0.000000
7.912639e-06 1.297511e-06 0.000000
8.293369e-06 1.097403e-06 0.000000
8.656242e-06 9.079821e-07 0.000000
9.001022e-06 7.304507e-07 0.000000
9.327149e-06 5.657572e-07 0.000000
9.633902e-06 4.146031e-07 0.000000
9.920517e-06 2.774558e-07 0.000000
1.018628e-05 1.545713e-07 0.000000
1.043059e-05 4.602603e-08 0.000000
1.065297e-05 -4.824442e-08 0.000000
1.085312e-05 -1.284021e-07 0.000000
1.103088e-05 -1.946646e-07 0.000000
1.118623e-05 -2.472677e-07 0.000000
1.131925e-05 -2.864358e-07 0.000000
1.143009e-05 -3.123634e-07 0.000000
1.151898e-05 -3.252102e-07 0.000000
1.158615e-05 -3.251115e-07 0.000000
1.163185e-05 -3.122111e-07 0.000000
1.165631e-05 -2.867376e-07 0.000000
7.095457e-06 1.723697e-06 0.000000
7.149470e-06 1.565774e-06 0.000000
7.558021e-06 1.352304e-06 0.000000
7.949760e-06 1.146810e-06 0.000000
8.324856e-06 9.511086e-07 0.000000
8.682912e-06 7.666873e-07 0.000000
9.023192e-06 5.947288e-07 0.000000
9.344800e-06 4.361254e-07 0.000000
9.646797e-06 2.914950e-07 0.000000
9.928300e-06 1.612041e-07 0.000000
1.018855e-05 4.540104e-08 0.000000
1.042695e-05 -5.594186e-08 0.000000
1.064310e-05 -1.429803e-07 0.000000
1.083675e-05 -2.159489e-07 0.000000
1.100786e-05 -2.751154e-07 0.000000
1.115649e-05 -3.207433e-07 0.000000
1.128279e-05 -3.530657e-07 0.000000
1.138700e-05 -3.722726e-07 0.000000
1.146935e-05 -3.785139e-07 0.000000
1.153008e-05 -3.719193e-07 0.000000
1.156937e-05 -3.526407e-07 0.000000
6.723019e-06 1.785034e-06 0.000000
6.772752e-06 1.622170e-06 0.000000
7.189651e-06 1.405579e-06 0.000000
7.591462e-06 1.195412e-06 0.000000
7.978115e-06 9.939055e-07 0.000000
8.348988e-06 8.028828e-07 0.000000
8.703133e-06 6.238015e-07 0.000000
9.039446e-06 4.577828e-07 0.000000
9.356783e-06 3.056298e-07 0.000000
9.654068e-06 1.678509e-07 0.000000
9.930363e-06 4.469256e-08 0.000000
1.018492e-05 -6.381635e-08 0.000000
1.041720e-05 -1.578120e-07 0.000000
1.062689e-05 -2.375393e-07 0.000000
1.081387e-05 -3.032971e-07 0.000000
1.097819e-05 -3.553915e-07 0.000000
1.112001e-05 -3.941001e-07 0.000000
1.123957e-05 -4.196516e-07 0.000000
1.133713e-05 -4.322203e-07 0.000000
1.141294e-05 -4.319371e-07 0.000000
1.146718e-05 -4.189140e-07 0.000000
6.339935e-06 1.842430e-06 0.000000
6.383988e-06 1.674880e-06 0.000000
6.807737e-06 1.456476e-06 0.000000
7.218561e-06 1.242590e-06 0.000000
7.616021e-06 1.035952e-06 0.000000
7.999195e-06 8.387701e-07 0.000000
8.366874e-06 6.528215e-07 0.000000
8.717711e-06 4.794986e-07 0.000000
9.050333e-06 3.198306e-07 0.000000
9.363442e-06 1.745055e-07 0.000000
9.655894e-06 4.390111e-08 0.000000
9.926758e-06 -7.187093e-08 0.000000
1.017535e-05 -1.729084e-07 0.000000
1.040124e-05 -2.594555e-07 0.000000
1.060424e-05 -3.318384e-07 0.000000
1.078436e-05 -3.904075e-07 0.000000
1.094177e-05 -4.354911e-07 0.000000
1.107672e-05 -4.673645e-07 0.000000
1.118951e-05 -4.862366e-07 0.000000
1.128043e-05 -4.922523e-07 0.000000
1.134968e-05 -4.855079e-07 0.000000
5.946946e-06 1.894363e-06 0.000000
5.983560e-06 1.722381e-06 0.000000
6.412463e-06 1.503837e-06 0.000000
6.831127e-06 1.287496e-06 0.000000
7.238572e-06 1.076654e-06 0.000000
7.633477e-06 8.739586e-07 0.000000
8.014317e-06 6.815528e-07 0.000000
8.379467e-06 5.011465e-07 0.000000
8.727298e-06 3.340418e-07 0.000000
9.056266e-06 1.811517e-07 0.000000
9.364993e-06 4.302614e-08 0.000000
9.652337e-06 -8.010555e-08 0.000000
9.917436e-06 -1.882771e-07 0.000000
1.015972e-05 -2.817151e-07 0.000000
1.037891e-05 -3.607654e-07 0.000000
1.057497e-05 -4.258223e-07 0.000000
1.074806e-05 -4.772696e-07 0.000000
1.089846e-05 -5.154380e-07 0.000000
1.102652e-05 -5.405810e-07 0.000000
1.113256e-05 -5.528702e-07 0.000000
1.121684e-05 -5.524035e-07 0.000000
5.544801e-06 1.938869e-06 0.000000
5.571783e-06 1.762692e-06 0.000000
6.003963e-06 1.546131e-06 0.000000
6.429203e-06 1.328984e-06 0.000000
6.845756e-06 1.115194e-06 0.000000
7.251780e-06 9.078969e-07 0.000000
7.645369e-06 7.096508e-07 0.000000
8.024588e-06 5.225332e-07 0.000000
8.387529e-06 3.481718e-07 0.000000
8.732377e-06 1.877583e-07 0.000000
9.057499e-06 4.206583e-08 0.000000
9.361512e-06 -8.851493e-08 0.000000
9.643342e-06 -2.039185e-07 0.000000
9.902253e-06 -3.043300e-07 0.000000
1.013784e-05 -3.901014e-07 0.000000
1.035001e-05 -4.616671e-07 0.000000
1.053890e-05 -5.194701e-07 0.000000
1.070482e-05 -5.639048e-07 0.000000
1.084817e-05 -5.952806e-07 0.000000
1.096934e-05 -6.138078e-07 0.000000
1.106867e-05 -6.196004e-07 0.000000
5.134209e-06 1.973434e-06 0.000000
5.148846e-06 1.793253e-06 0.000000
5.582281e-06 1.581353e-06 0.000000
6.012787e-06 1.365537e-06 0.000000
6.437547e-06 1.150470e-06 0.000000
6.854053e-06 9.398273e-07 0.000000
7.259950e-06 7.366305e-07 0.000000
7.652962e-06 5.433773e-07 0.000000
8.030883e-06 3.620813e-07 0.000000
8.391616e-06 1.942751e-07 0.000000
8.733248e-06 4.101664e-08 0.000000
9.054127e-06 -9.708593e-08 0.000000
9.352935e-06 -2.198221e-07 0.000000
9.628734e-06 -3.273018e-07 0.000000
9.880971e-06 -4.198624e-07 0.000000
1.010946e-05 -4.979700e-07 0.000000
1.031430e-05 -5.621276e-07 0.000000
1.049583e-05 -6.128010e-07 0.000000
1.065450e-05 -6.503675e-07 0.000000
1.079080e-05 -6.750893e-07 0.000000
1.090515e-05 -6.871098e-07 0.000000
4.715768e-06 1.994853e-06 0.000000
4.714721e-06 1.810776e-06 0.000000
5.147325e-06 1.606903e-06 0.000000
5.581808e-06 1.395165e-06 0.000000
6.013906e-06 1.181021e-06 0.000000
6.440264e-06 9.687314e-07 0.000000
6.858010e-06 7.618272e-07 0.000000
7.264506e-06 5.632842e-07 0.000000
7.657242e-06 3.755677e-07 0.000000
8.033834e-06 2.006251e-07 0.000000
8.392074e-06 3.987283e-08 0.000000
8.730018e-06 -1.057941e-07 0.000000
9.046072e-06 -2.359606e-07 0.000000
9.339054e-06 -3.506156e-07 0.000000
9.608225e-06 -4.500515e-07 0.000000
9.853273e-06 -5.347502e-07 0.000000
1.007426e-05 -6.052726e-07 0.000000
1.027152e-05 -6.621624e-07 0.000000
1.044557e-05 -7.058764e-07 0.000000
1.059699e-05 -7.367432e-07 0.000000
1.072632e-05 -7.549500e-07 0.000000
4.289839e-06 1.999053e-06 0.000000
4.269036e-06 1.811040e-06 0.000000
4.698794e-06 1.619428e-06 0.000000
5.136108e-06 1.415293e-06 0.000000
5.574775e-06 1.204943e-06 0.000000
6.010407e-06 9.932672e-07 0.000000
6.439548e-06 7.843525e-07 0.000000
6.859190e-06 5.817154e-07 0.000000
7.266533e-06 3.883484e-07 0.000000
7.658913e-06 2.066974e-07 0.000000
8.033829e-06 3.862580e-08 0.000000
8.389028e-06 -1.145996e-07 0.000000
8.722604e-06 -2.522831e-07 0.000000
9.033093e-06 -3.742319e-07 0.000000
9.319526e-06 -4.806503e-07 0.000000
9.581429e-06 -5.720119e-07 0.000000
9.818779e-06 -6.489264e-07 0.000000
1.003191e-05 -7.120199e-07 0.000000
1.022141e-05 -7.618407e-07 0.000000
1.038796e-05 -7.987994e-07 0.000000
1.053221e-05 -8.231430e-07 0.000000
3.856362e-06 1.980845e-06 0.000000
3.810878e-06 1.788617e-06 0.000000
4.236103e-06 1.614622e-06 0.000000
4.675410e-06 1.422613e-06 0.000000
5.120092e-06 1.219788e-06 0.000000
5.564527e-06 1.011696e-06 0.000000
6.004637e-06 8.030427e-07 0.000000
6.437062e-06 5.979551e-07 0.000000
6.858749e-06 4.000395e-07 0.000000
7.266789e-06 2.123377e-07 0.000000
7.658399e-06 3.726349e-08 0.000000
8.031010e-06 -1.234413e-07 0.000000
8.382382e-06 -2.687058e-07 0.000000
8.710724e-06 -3.980762e-07 0.000000
9.014785e-06 -5.116098e-07 0.000000
9.293882e-06 -6.097346e-07 0.000000
9.547875e-06 -6.930932e-07 0.000000
9.777072e-06 -7.623940e-07 0.000000
9.982104e-06 -8.182883e-07 0.000000
1.016377e-05 -8.612859e-07 0.000000
1.032290e-05 -8.917110e-07 0.000000
3.414533e-06 1.933569e-06 0.000000
3.338516e-06 1.736456e-06 0.000000
3.758272e-06 1.586955e-06 0.000000
4.199315e-06 1.412922e-06 0.000000
4.649810e-06 1.222449e-06 0.000000
5.102757e-06 1.021810e-06 0.000000
5.553468e-06 8.164060e-07 0.000000
5.998292e-06 6.110734e-07 0.000000
6.433996e-06 4.101340e-07 0.000000
6.857481e-06 2.173379e-07 0.000000
7.265726e-06 3.576982e-08 0.000000
7.655855e-06 -1.322306e-07 0.000000
8.025272e-06 -2.851013e-07 0.000000
8.371819e-06 -4.220260e-07 0.000000
8.693908e-06 -5.428362e-07 0.000000
8.990589e-06 -6.478617e-07 0.000000
9.261550e-06 -7.377503e-07 0.000000
9.507039e-06 -8.132869e-07 0.000000
9.727727e-06 -8.752358e-07 0.000000
9.924532e-06 -9.242236e-07 0.000000
1.009845e-05 -9.606729e-07 0.000000
2.962238e-06 1.848569e-06 0.000000
2.848975e-06 1.645255e-06 0.000000
3.263841e-06 1.529313e-06 0.000000
3.707318e-06 1.380915e-06 0.000000
4.163955e-06 1.209052e-06 0.000000
4.625382e-06 1.020854e-06 0.000000
5.086410e-06 8.225728e-07 0.000000
5.543228e-06 6.198916e-07 0.000000
5.992533e-06 4.179790e-07 0.000000
6.431137e-06 2.214254e-07 0.000000
6.855846e-06 3.412451e-08 0.000000
7.263507e-06 -1.408432e-07 0.000000
7.651165e-06 -3.012845e-07 0.000000
8.016258e-06 -4.458941e-07 0.000000
8.356797e-06 -5.741751e-07 0.000000
8.671498e-06 -6.862853e-07 0.000000
8.959812e-06 -7.828355e-07 0.000000
9.221877e-06 -8.646728e-07 0.000000
9.458378e-06 -9.326803e-07 0.000000