# vtk DataFile Version 3.0
Temperature Field
ASCII
DATASET UNSTRUCTURED_GRID
POINTS 861 float
0.195000 -0.000000 0.000000
0.200000 -0.000000 0.000000
0.200000 0.005000 0.000000
0.195000 0.005000 0.000000
0.190000 -0.000000 0.000000
0.200000 0.010000 0.000000
0.190000 0.005000 0.000000
0.195000 0.010000 0.000000
0.185000 -0.000000 0.000000
0.200000 0.015000 0.000000
0.185000 0.005000 0.000000
0.190000 0.010000 0.000000
0.195000 0.015000 0.000000
0.180000 -0.000000 0.000000
0.200000 0.020000 0.000000
0.180000 0.005000 0.000000
0.185000 0.010000 0.000000
0.190000 0.015000 0.000000
0.195000 0.020000 0.000000
0.175000 -0.000000 0.000000
0.200000 0.025000 0.000000
0.175000 0.005000 0.000000
0.180000 0.010000 0.000000
0.185000 0.015000 0.000000
0.190000 0.020000 0.000000
0.195000 0.025000 0.000000
0.170000 -0.000000 0.000000
0.200000 0.030000 0.000000
0.170000 0.005000 0.000000
0.175000 0.010000 0.000000
0.180000 0.015000 0.000000
0.185000 0.020000 0.000000
0.190000 0.025000 0.000000
0.195000 0.030000 0.000000
0.165000 -0.000000 0.000000
0.200000 0.035000 0.000000
0.165000 0.005000 0.000000
0.170000 0.010000 0.000000
0.175000 0.015000 0.000000
0.180000 0.020000 0.000000
0.185000 0.025000 0.000000
0.190000 0.030000 0.000000
0.195000 0.035000 0.000000
0.160000 -0.000000 0.000000
0.200000 0.040000 0.000000
0.160000 0.005000 0.000000
0.165000 0.010000 0.000000
0.170000 0.015000 0.000000
0.175000 0.020000 0.000000
0.180000 0.025000 0.000000
0.185000 0.030000 0.000000
0.190000 0.035000 0.000000
0.195000 0.040000 0.000000
0.155000 -0.000000 0.000000
0.200000 0.045000 0.000000
0.155000 0.005000 0.000000
0.160000 0.010000 0.000000
0.165000 0.015000 0.000000
0.170000 0.020000 0.000000
0.175000 0.025000 0.000000
0.180000 0.030000 0.000000
0.185000 0.035000 0.000000
0.190000 0.040000 0.000000
0.195000 0.045000 0.000000
0.150000 -0.000000 0.000000
0.200000 0.050000 0.000000
0.150000 0.005000 0.000000
0.155000 0.010000 0.000000
0.160000 0.015000 0.000000
0.165000 0.020000 0.000000
0.170000 0.025000 0.000000
0.175000 0.030000 0.000000
0.180000 0.035000 0.000000
0.185000 0.040000 0.000000
0.190000 0.045000 0.000000
0.195000 0.050000 0.000000
0.145000 -0.000000 0.000000
0.200000 0.055000 0.000000
0.145000 0.005000 0.000000
0.150000 0.010000 0.000000
0.155000 0.015000 0.000000
0.160000 0.020000 0.000000
0.165000 0.025000 0.000000
0.170000 0.030000 0.000000
0.175000 0.035000 0.000000
0.180000 0.040000 0.000000
0.185000 0.045000 0.000000
0.190000 0.050000 0.000000
0.195000 0.055000 0.000000
0.140000 -0.000000 0.000000
0.200000 0.060000 0.000000
0.140000 0.005000 0.000000
0.145000 0.010000 0.000000
0.150000 0.015000 0.000000
0.155000 0.020000 0.000000
0.160000 0.025000 0.000000
0.165000 0.030000 0.000000
0.170000 0.035000 0.000000
0.175000 0.040000 0.000000
0.180000 0.045000 0.000000
0.185000 0.050000 0.000000
0.190000 0.055000 0.000000
0.195000 0.060000 0.000000
0.135000 -0.000000 0.000000
0.200000 0.065000 0.000000
0.135000 0.005000 0.000000
0.140000 0.010000 0.000000
0.145000 0.015000 0.000000
0.150000 0.020000 0.000000
0.155000 0.025000 0.000000
0.160000 0.030000 0.000000
0.165000 0.035000 0.000000
0.170000 0.040000 0.000000
0.175000 0.045000 0.000000
0.180000 0.050000 0.000000
0.185000 0.055000 0.000000
0.190000 0.060000 0.000000
0.195000 0.065000 0.000000
0.130000 -0.000000 0.000000
0.200000 0.070000 0.000000
0.130000 0.005000 0.000000
0.135000 0.010000 0.000000
0.140000 0.015000 0.000000
0.145000 0.020000 0.000000
0.150000 0.025000 0.000000
0.155000 0.030000 0.000000
0.160000 0.035000 0.000000
0.165000 0.040000 0.000000
0.170000 0.045000 0.000000
0.175000 0.050000 0.000000
0.180000 0.055000 0.000000
0.185000 0.060000 0.000000
0.190000 0.065000 0.000000
0.195000 0.070000 0.000000
0.125000 -0.000000 0.000000
0.200000 0.075000 0.000000
0.125000 0.005000 0.000000
0.130000 0.010000 0.000000
0.135000 0.015000 0.000000
0.140000 0.020000 0.000000
0.145000 0.025000 0.000000
0.150000 0.030000 0.000000
0.155000 0.035000 0.000000
0.160000 0.040000 0.000000
0.165000 0.045000 0.000000
0.170000 0.050000 0.000000
0.175000 0.055000 0.000000
0.180000 0.060000 0.000000
0.185000 0.065000 0.000000
0.190000 0.070000 0.000000
0.195000 0.075000 0.000000
0.120000 -0.000000 0.000000
0.200000 0.080000 0.000000
0.120000 0.005000 0.000000
0.125000 0.010000 0.000000
0.130000 0.015000 0.000000
0.135000 0.020000 0.000000
0.140000 0.025000 0.000000
0.145000 0.030000 0.000000
0.150000 0.035000 0.000000
0.155000 0.040000 0.000000
0.160000 0.045000 0.000000
0.165000 0.050000 0.000000
0.170000 0.055000 0.000000
0.175000 0.060000 0.000000
0.180000 0.065000 0.000000
0.185000 0.070000 0.000000
0.190000 0.075000 0.000000
0.195000 0.080000 0.000000
0.115000 -0.000000 0.000000
0.200000 0.085000 0.000000
0.115000 0.005000 0.000000
0.120000 0.010000 0.000000
0.125000 0.015000 0.000000
0.130000 0.020000 0.000000
0.135000 0.025000 0.000000
0.140000 0.030000 0.000000
0.145000 0.035000 0.000000
0.150000 0.040000 0.000000
0.155000 0.045000 0.000000
0.160000 0.050000 0.000000
0.165000 0.055000 0.000000
0.170000 0.060000 0.000000
0.175000 0.065000 0.000000
0.180000 0.070000 0.000000
0.185000 0.075000 0.000000
0.190000 0.080000 0.000000
0.195000 0.085000 0.000000
0.110000 -0.000000 0.000000
0.200000 0.090000 0.000000
0.110000 0.005000 0.000000
0.115000 0.010000 0.000000
0.120000 0.015000 0.000000
0.125000 0.020000 0.000000
0.130000 0.025000 0.000000
0.135000 0.030000 0.000000
0.140000 0.035000 0.000000
0.145000 0.040000 0.000000
0.150000 0.045000 0.000000
0.155000 0.050000 0.000000
0.160000 0.055000 0.000000
0.165000 0.060000 0.000000
0.170000 0.065000 0.000000
0.175000 0.070000 0.000000
0.180000 0.075000 0.000000
0.185000 0.080000 0.000000
0.190000 0.085000 0.000000
0.195000 0.090000 0.000000
0.105000 -0.000000 0.000000
0.200000 0.095000 0.000000
0.105000 0.005000 0.000000
0.110000 0.010000 0.000000
0.115000 0.015000 0.000000
0.120000 0.020000 0.000000
0.125000 0.025000 0.000000
0.130000 0.030000 0.000000
0.135000 0.035000 0.000000
0.140000 0.040000 0.000000
0.145000 0.045000 0.000000
0.150000 0.050000 0.000000
0.155000 0.055000 0.000000
0.160000 0.060000 0.000000
0.165000 0.065000 0.000000
0.170000 0.070000 0.000000
0.175000 0.075000 0.000000
0.180000 0.080000 0.000000
0.185000 0.085000 0.000000
0.190000 0.090000 0.000000
0.195000 0.095000 0.000000
0.100000 -0.000000 0.000000
0.200000 0.100000 0.000000
0.100000 0.005000 0.000000
0.105000 0.010000 0.000000
0.110000 0.015000 0.000000
0.115000 0.020000 0.000000
0.120000 0.025000 0.000000
0.125000 0.030000 0.000000
0.130000 0.035000 0.000000
0.135000 0.040000 0.000000
0.140000 0.045000 0.000000
0.145000 0.050000 0.000000
0.150000 0.055000 0.000000
0.155000 0.060000 0.000000
0.160000 0.065000 0.000000
0.165000 0.070000 0.000000
0.170000 0.075000 0.000000
0.175000 0.080000 0.000000
0.180000 0.085000 0.000000
0.185000 0.090000 0.000000
0.190000 0.095000 0.000000
0.195000 0.100000 0.000000
0.095000 -0.000000 0.000000
0.095000 0.005000 0.000000
0.100000 0.010000 0.000000
0.105000 0.015000 0.000000
0.110000 0.020000 0.000000
0.115000 0.025000 0.000000
0.120000 0.030000 0.000000
0.125000 0.035000 0.000000
0.130000 0.040000 0.000000
0.135000 0.045000 0.000000
0.140000 0.050000 0.000000
0.145000 0.055000 0.000000
0.150000 0.060000 0.000000
0.155000 0.065000 0.000000
0.160000 0.070000 0.000000
0.165000 0.075000 0.000000
0.170000 0.080000 0.000000
0.175000 0.085000 0.000000
0.180000 0.090000 0.000000
0.185000 0.095000 0.000000
0.190000 0.100000 0.000000
0.090000 -0.000000 0.000000
0.090000 0.005000 0.000000
0.095000 0.010000 0.000000
0.100000 0.015000 0.000000
0.105000 0.020000 0.000000
0.110000 0.025000 0.000000
0.115000 0.030000 0.000000
0.120000 0.035000 0.000000
0.125000 0.040000 0.000000
0.130000 0.045000 0.000000
0.135000 0.050000 0.000000
0.140000 0.055000 0.000000
0.145000 0.060000 0.000000
0.150000 0.065000 0.000000
0.155000 0.070000 0.000000
0.160000 0.075000 0.000000
0.165000 0.080000 0.000000
0.170000 0.085000 0.000000
0.175000 0.090000 0.000000
0.180000 0.095000 0.000000
0.185000 0.100000 0.000000
0.085000 -0.000000 0.000000
0.085000 0.005000 0.000000
0.090000 0.010000 0.000000
0.095000 0.015000 0.000000
0.100000 0.020000 0.000000
0.105000 0.025000 0.000000
0.110000 0.030000 0.000000
0.115000 0.035000 0.000000
0.120000 0.040000 0.000000
0.125000 0.045000 0.000000
0.130000 0.050000 0.000000
0.135000 0.055000 0.000000
0.140000 0.060000 0.000000
0.145000 0.065000 0.000000
0.150000 0.070000 0.000000
0.155000 0.075000 0.000000
0.160000 0.080000 0.000000
0.165000 0.085000 0.000000
0.170000 0.090000 0.000000
0.175000 0.095000 0.000000
0.180000 0.100000 0.000000
0.080000 -0.000000 0.000000
0.080000 0.005000 0.000000
0.085000 0.010000 0.000000
0.090000 0.015000 0.000000
0.095000 0.020000 0.000000
0.100000 0.025000 0.000000
0.105000 0.030000 0.000000
0.110000 0.035000 0.000000
0.115000 0.040000 0.000000
0.120000 0.045000 0.000000
0.125000 0.050000 0.000000
0.130000 0.055000 0.000000
0.135000 0.060000 0.000000
0.140000 0.065000 0.000000
0.145000 0.070000 0.000000
0.150000 0.075000 0.000000
0.155000 0.080000 0.000000
0.160000 0.085000 0.000000
0.165000 0.090000 0.000000
0.170000 0.095000 0.000000
0.175000 0.100000 0.000000
0.075000 -0.000000 0.000000
0.075000 0.005000 0.000000
0.080000 0.010000 0.000000
0.085000 0.015000 0.000000
0.090000 0.020000 0.000000
0.095000 0.025000 0.000000
0.100000 0.030000 0.000000
0.105000 0.035000 0.000000
0.110000 0.040000 0.000000
0.115000 0.045000 0.000000
0.120000 0.050000 0.000000
0.125000 0.055000 0.000000
0.130000 0.060000 0.000000
0.135000 0.065000 0.000000
0.140000 0.070000 0.000000
0.145000 0.075000 0.000000
0.150000 0.080000 0.000000
0.155000 0.085000 0.000000
0.160000 0.090000 0.000000
0.165000 0.095000 0.000000
0.170000 0.100000 0.000000
0.070000 -0.000000 0.000000
0.070000 0.005000 0.000000
0.075000 0.010000 0.000000
0.080000 0.015000 0.000000
0.085000 0.020000 0.000000
0.090000 0.025000 0.000000
0.095000 0.030000 0.000000
0.100000 0.035000 0.000000
0.105000 0.040000 0.000000
[...]
POINT_DATA 861
SCALARS Temperature float 1
LOOKUP_TABLE default
121.288344
120.552147
120.552147
121.288344
122.024540
120.552147
122.024540
121.288344
122.760736
120.552147
122.760736
122.024540
121.288344
123.496933
120.552147
123.496933
122.760736
122.024540
121.288344
124.233129
120.552147
124.233129
123.496933
122.760736
122.024540
121.288344
124.969325
120.552147
124.969325
124.233129
123.496933
122.760736
122.024540
121.288344
125.705521
120.552147
125.705521
124.969325
124.233129
123.496933
122.760736
122.024540
121.288344
126.441718
120.552147
126.441718
125.705521
124.969325
124.233129
123.496933
122.760736
122.024540
121.288344
127.177914
120.552147
127.177914
126.441718
125.705521
124.969325
124.233129
123.496933
122.760736
122.024540
121.288344
127.914110
120.552147
127.914110
127.177914
126.441718
125.705521
124.969325
124.233129
123.496933
122.760736
122.024540
121.288344
128.650307
120.552147
128.650307
127.914110
127.177914
126.441718
125.705521
124.969325
124.233129
123.496933
122.760736
122.024540
121.288344
129.386503
120.552147
129.386503
128.650307
127.914110
127.177914
126.441718
125.705521
124.969325
124.233129
123.496933
122.760736
122.024540
121.288344
130.122699
120.552147
130.122699
129.386503
128.650307
127.914110
127.177914
126.441718
125.705521
124.969325
124.233129
123.496933
122.760736
122.024540
121.288344
130.858896
120.552147
130.858896
130.122699
129.386503
128.650307
127.914110
127.177914
126.441718
125.705521
124.969325
124.233129
123.496933
122.760736
122.024540
121.288344
131.595092
120.552147
131.595092
130.858896
130.122699
129.386503
128.650307
127.914110
127.177914
126.441718
125.705521
124.969325
124.233129
123.496933
122.760736
122.024540
121.288344
132.331288
120.552147
132.331288
131.595092
130.858896
130.122699
129.386503
128.650307
127.914110
127.177914
126.441718
125.705521
124.969325
124.233129
123.496933
122.760736
122.024540
121.288344
133.067485
120.552147
133.067485
132.331288
131.595092
130.858896
130.122699
129.386503
128.650307
127.914110
127.177914
126.441718
125.705521
124.969325
124.233129
123.496933
122.760736
122.024540
121.288344
133.803681
120.552147
133.803681
133.067485
132.331288
131.595092
130.858896
130.122699
129.386503
128.650307
127.914110
127.177914
126.441718
125.705521
124.969325
124.233129
123.496933
122.760736
122.024540
121.288344
134.539877
120.552147
134.539877
133.803681
133.067485
132.331288
131.595092
130.858896
130.122699
129.386503
128.650307
127.914110
127.177914
126.441718
125.705521
124.969325
124.233129
123.496933
122.760736
122.024540
121.288344
135.276074
120.552147
135.276074
134.539877
133.803681
133.067485
132.331288
131.595092
130.858896
130.122699
129.386503
128.650307
127.914110
127.177914
126.441718
125.705521
124.969325
124.233129
123.496933
122.760736
122.024540
121.288344
136.012270
136.012270
135.276074
134.539877
133.803681
133.067485
132.331288
131.595092
130.858896
130.122699
129.386503
128.650307
127.914110
127.177914
126.441718
125.705521
124.969325
124.233129
123.496933
122.760736
122.024540
136.748466
136.748466
136.012270
135.276074
134.539877
133.803681
133.067485
132.331288
131.595092
130.858896
130.122699
129.386503
128.650307
127.914110
127.177914
126.441718
125.705521
124.969325
124.233129
123.496933
122.760736
137.484663
137.484663
136.748466
136.012270
135.276074
134.539877
133.803681
133.067485
132.331288
131.595092
130.858896
130.122699
129.386503
128.650307
127.914110
127.177914
126.441718
125.705521
124.969325
124.233129
123.496933
138.220859
138.220859
137.484663
136.748466
136.012270
135.276074
134.539877
133.803681
133.067485
132.331288
131.595092
130.858896
130.122699
129.386503
128.650307
127.914110
127.177914
126.441718
125.705521
124.969325
124.233129
138.957055
138.957055
138.220859
137.484663
136.748466
136.012270
135.276074
134.539877
133.803681
133.067485
132.331288
131.595092
130.858896
130.122699
129.386503
128.650307
127.914110
127.177914
126.441718
125.705521
124.969325
139.693252
139.693252
138.957055
138.220859
137.484663
136.748466
136.012270
135.276074
134.539877
133.803681
133.067485
132.331288
131.595092
130.858896
130.122699
129.386503
128.650307
127.914110
127.177914
126.441718
125.705521
140.429448
140.429448
139.693252
138.957055
138.220859
137.484663
136.748466
136.012270
135.276074
134.539877
133.803681
133.067485
132.331288
131.595092
130.858896
130.122699
129.386503
128.650307
127.914110
127.177914
126.441718
141.165644
141.165644
140.429448
139.693252
138.957055
138.220859
137.484663
136.748466
136.012270
135.276074
134.539877
133.803681
133.067485
132.331288
131.595092
130.858896
130.122699
129.386503
128.650307
127.914110
127.177914
141.901840
141.901840
141.165644
140.429448
139.693252
138.957055
138.220859
137.484663
136.748466
136.012270
135.276074
134.539877
133.803681
133.067485
132.331288
131.595092
130.858896
130.122699
129.386503
128.650307
127.914110
142.638037
142.638037
141.901840
141.165644
140.429448
139.693252
138.957055
138.220859
137.484663
136.748466
136.012270
135.276074
134.539877
133.803681
133.067485
132.331288
131.595092
130.858896
130.122699
129.386503
128.650307
143.374233
143.374233
142.638037
141.901840
141.165644
140.429448
139.693252
138.957055
138.220859
137.484663
136.748466
136.012270
135.276074
134.539877
133.803681
133.067485
132.331288
131.595092
130.858896
130.122699
129.386503
144.110429
144.110429
143.374233
142.638037
141.901840
141.165644
140.429448
139.693252
138.957055
138.220859
137.484663
136.748466
136.012270
135.276074
134.539877
133.803681
133.067485
132.331288
131.595092
130.858896
130.122699
144.846626
144.846626
144.110429
143.374233
142.638037
141.901840
141.165644
140.429448
139.693252
138.957055
138.220859
137.484663
136.748466
136.012270
135.276074
134.539877
133.803681
133.067485
132.331288
131.595092
130.858896
145.582822
145.582822
144.846626
144.110429
143.374233
142.638037
141.901840
141.165644
140.429448
139.693252
138.957055
138.220859
137.484663
136.748466
136.012270
135.276074
134.539877
133.803681
133.067485
132.331288
131.595092
146.319018
146.319018
145.582822
144.846626
144.110429
143.374233
142.638037
141.901840
141.165644
140.429448
139.693252
138.957055
138.220859
137.484663
136.748466
136.012270
135.276074
134.539877
133.803681
133.067485
132.331288
147.055215
147.055215
146.319018
145.582822
144.846626
144.110429
143.374233
142.638037
141.901840
141.165644
140.429448
139.693252
138.957055
138.220859
137.484663
136.748466
136.012270
135.276074
134.539877
133.803681
133.067485
147.791411
147.791411
147.055215
146.319018
145.582822
144.846626
144.110429
143.374233
142.638037
141.901840
141.165644
140.429448
139.693252
138.957055
138.220859
137.484663
136.748466
136.012270
135.276074
134.539877
133.803681
148.527607
148.527607
147.791411
147.055215
146.319018
145.582822
144.846626
144.110429
143.374233
142.638037
141.901840
141.165644
140.429448
139.693252
138.957055
138.220859
137.484663
136.748466
136.012270
135.276074
134.539877
149.263804
149.263804
148.527607
147.791411
147.055215
146.319018
145.582822
144.846626
144.110429
143.374233
142.638037
141.901840
141.165644
140.429448
139.693252
138.957055
138.220859
137.484663
136.748466
136.012270
135.276074
150.000000
150.000000
149.263804
148.527607
147.791411
147.055215
146.319018
145.582822
144.846626
144.110429
143.374233
142.638037
141.901840
141.165644
140.429448
139.693252
138.957055
138.220859
137.484663
136.748466
136.012270
150.000000
149.263804
148.527607
147.791411
147.055215
146.319018
145.582822
144.846626
144.110429
143.374233
142.638037
141.901840
141.165644
140.429448
139.693252
138.957055
138.220859
137.484663
136.748466
150.000000
149.263804
148.527607
147.791411
147.055215
146.319018
145.582822
144.846626
144.110429
143.374233
142.638037
141.901840
141.165644
140.429448
139.693252
138.957055
138.220859
137.484663
150.000000
149.263804
148.527607
147.791411
147.055215
146.319018
145.582822
144.846626
144.110429
143.374233
142.638037
141.901840
141.165644
140.429448
139.693252
138.957055
138.220859
150.000000
149.263804
148.527607
147.791411
147.055215
146.319018
145.582822
144.846626
144.110429
143.374233
142.638037
141.901840
141.165644
140.429448
139.693252
138.957055
150.000000
149.263804
148.527607
147.791411
147.055215
146.319018
145.582822
144.846626
144.110429
143.374233
142.638037
141.901840
141.165644
140.429448
139.693252
150.000000
149.263804
148.527607
147.791411
147.055215
146.319018
145.582822
144.846626
144.110429
143.374233
142.638037
141.901840
141.165644
140.429448
150.000000
149.263804
148.527607
147.791411
147.055215
146.319018
145.582822
144.846626
144.110429
143.374233
142.638037
141.901840
141.165644
150.000000
149.263804
148.527607
147.791411
147.055215
146.319018
145.582822
144.846626
144.110429
143.374233
142.638037
141.901840
150.000000
149.263804
148.527607
147.791411
147.055215
146.319018
145.582822
144.846626
144.110429
143.374233
142.638037
150.000000
149.263804
148.527607
147.791411
147.055215
146.319018
145.582822
144.846626
144.110429
143.374233
150.000000
149.263804
148.527607
147.791411
147.055215
146.319018
145.582822
144.846626
144.110429
150.000000
149.263804
148.527607
147.791411
147.055215
146.319018
145.582822
144.846626
150.000000
149.263804
148.527607
147.791411
147.055215
146.319018
145.582822
150.000000
149.263804
148.527607
147.791411
147.055215
146.319018
150.000000
149.263804
148.527607
147.791411
147.055215
150.000000
149.263804
148.527607
147.791411
150.000000
149.263804
148.527607
150.000000
149.263804
150.000000
